Variables = "x","y", "p" 
Zone i=400 j=100
5.000000e-004  2.000000e-004  -1.415739e-003
1.000000e-003  2.000000e-004  -1.417741e-003
1.500000e-003  2.000000e-004  -1.418772e-003
2.000000e-003  2.000000e-004  -1.418841e-003
2.500000e-003  2.000000e-004  -1.417951e-003
3.000000e-003  2.000000e-004  -1.416106e-003
3.500000e-003  2.000000e-004  -1.413307e-003
4.000000e-003  2.000000e-004  -1.409555e-003
4.500000e-003  2.000000e-004  -1.404849e-003
5.000000e-003  2.000000e-004  -1.399184e-003
5.500000e-003  2.000000e-004  -1.392556e-003
6.000000e-003  2.000000e-004  -1.384958e-003
6.500000e-003  2.000000e-004  -1.376383e-003
7.000000e-003  2.000000e-004  -1.366820e-003
7.500000e-003  2.000000e-004  -1.356258e-003
8.000000e-003  2.000000e-004  -1.344684e-003
8.500000e-003  2.000000e-004  -1.332083e-003
9.000000e-003  2.000000e-004  -1.318439e-003
9.500000e-003  2.000000e-004  -1.303732e-003
1.000000e-002  2.000000e-004  -1.287944e-003
1.050000e-002  2.000000e-004  -1.271052e-003
1.100000e-002  2.000000e-004  -1.253032e-003
1.150000e-002  2.000000e-004  -1.233859e-003
1.200000e-002  2.000000e-004  -1.213505e-003
1.250000e-002  2.000000e-004  -1.191939e-003
1.300000e-002  2.000000e-004  -1.169131e-003
1.350000e-002  2.000000e-004  -1.145046e-003
1.400000e-002  2.000000e-004  -1.119647e-003
1.450000e-002  2.000000e-004  -1.092897e-003
1.500000e-002  2.000000e-004  -1.064753e-003
1.550000e-002  2.000000e-004  -1.035172e-003
1.600000e-002  2.000000e-004  -1.004109e-003
1.650000e-002  2.000000e-004  -9.715128e-004
1.700000e-002  2.000000e-004  -9.373325e-004
1.750000e-002  2.000000e-004  -9.015128e-004
1.800000e-002  2.000000e-004  -8.639953e-004
1.850000e-002  2.000000e-004  -8.247182e-004
1.900000e-002  2.000000e-004  -7.836162e-004
1.950000e-002  2.000000e-004  -7.406203e-004
2.000000e-002  2.000000e-004  -6.956572e-004
2.050000e-002  2.000000e-004  -6.486495e-004
2.100000e-002  2.000000e-004  -5.995153e-004
2.150000e-002  2.000000e-004  -5.481677e-004
2.200000e-002  2.000000e-004  -4.945147e-004
2.250000e-002  2.000000e-004  -4.384587e-004
2.300000e-002  2.000000e-004  -3.798963e-004
2.350000e-002  2.000000e-004  -3.187176e-004
2.400000e-002  2.000000e-004  -2.548058e-004
2.450000e-002  2.000000e-004  -1.880366e-004
2.500000e-002  2.000000e-004  -1.182778e-004
2.550000e-002  2.000000e-004  -4.538842e-005
2.600000e-002  2.000000e-004  3.078206e-005
2.650000e-002  2.000000e-004  1.103945e-004
2.700000e-002  2.000000e-004  1.936209e-004
2.750000e-002  2.000000e-004  2.806459e-004
2.800000e-002  2.000000e-004  3.716676e-004
2.850000e-002  2.000000e-004  4.668989e-004
2.900000e-002  2.000000e-004  5.665693e-004
2.950000e-002  2.000000e-004  6.709267e-004
3.000000e-002  2.000000e-004  7.802391e-004
3.050000e-002  2.000000e-004  8.947969e-004
3.100000e-002  2.000000e-004  1.014916e-003
3.150000e-002  2.000000e-004  1.140940e-003
3.200000e-002  2.000000e-004  1.273244e-003
3.250000e-002  2.000000e-004  1.412240e-003
3.300000e-002  2.000000e-004  1.558377e-003
3.350000e-002  2.000000e-004  1.712154e-003
3.400000e-002  2.000000e-004  1.874116e-003
3.450000e-002  2.000000e-004  2.044872e-003
3.500000e-002  2.000000e-004  2.225095e-003
3.550000e-002  2.000000e-004  2.415536e-003
3.600000e-002  2.000000e-004  2.617034e-003
3.650000e-002  2.000000e-004  2.830531e-003
3.700000e-002  2.000000e-004  3.057087e-003
3.750000e-002  2.000000e-004  3.297898e-003
3.800000e-002  2.000000e-004  3.554321e-003
3.850000e-002  2.000000e-004  3.827900e-003
3.900000e-002  2.000000e-004  4.120393e-003
3.950000e-002  2.000000e-004  4.433823e-003
4.000000e-002  2.000000e-004  4.770495e-003
4.050000e-002  2.000000e-004  5.133097e-003
4.100000e-002  2.000000e-004  5.524682e-003
4.150000e-002  2.000000e-004  5.948866e-003
4.200000e-002  2.000000e-004  6.409711e-003
4.250000e-002  2.000000e-004  6.912139e-003
4.300000e-002  2.000000e-004  7.461497e-003
4.350000e-002  2.000000e-004  8.064551e-003
4.400000e-002  2.000000e-004  8.728072e-003
4.450000e-002  2.000000e-004  9.461405e-003
4.500000e-002  2.000000e-004  1.027213e-002
4.550000e-002  2.000000e-004  1.117321e-002
4.600000e-002  2.000000e-004  1.216957e-002
4.650000e-002  2.000000e-004  1.327959e-002
4.700000e-002  2.000000e-004  1.449189e-002
4.750000e-002  2.000000e-004  1.583649e-002
4.800000e-002  2.000000e-004  1.723322e-002
4.850000e-002  2.000000e-004  1.876612e-002
4.900000e-002  2.000000e-004  2.004295e-002
4.950000e-002  2.000000e-004  2.166448e-002
5.000000e-002  2.000000e-004  2.057810e-002
5.050000e-002  2.000000e-004  9.535793e-003
5.100000e-002  2.000000e-004  3.634392e-003
5.150000e-002  2.000000e-004  2.149831e-004
5.200000e-002  2.000000e-004  -1.868318e-003
5.250000e-002  2.000000e-004  -3.183767e-003
5.300000e-002  2.000000e-004  -4.039219e-003
5.350000e-002  2.000000e-004  -4.610364e-003
5.400000e-002  2.000000e-004  -5.000864e-003
5.450000e-002  2.000000e-004  -5.273439e-003
5.500000e-002  2.000000e-004  -5.466888e-003
5.550000e-002  2.000000e-004  -5.605738e-003
5.600000e-002  2.000000e-004  -5.705837e-003
5.650000e-002  2.000000e-004  -5.777667e-003
5.700000e-002  2.000000e-004  -5.828324e-003
5.750000e-002  2.000000e-004  -5.862735e-003
5.800000e-002  2.000000e-004  -5.884400e-003
5.850000e-002  2.000000e-004  -5.895871e-003
5.900000e-002  2.000000e-004  -5.899049e-003
5.950000e-002  2.000000e-004  -5.895383e-003
6.000000e-002  2.000000e-004  -5.885998e-003
6.050000e-002  2.000000e-004  -5.871788e-003
6.100000e-002  2.000000e-004  -5.853470e-003
6.150000e-002  2.000000e-004  -5.831632e-003
6.200000e-002  2.000000e-004  -5.806760e-003
6.250000e-002  2.000000e-004  -5.779264e-003
6.300000e-002  2.000000e-004  -5.749489e-003
6.350000e-002  2.000000e-004  -5.717731e-003
6.400000e-002  2.000000e-004  -5.684248e-003
6.450000e-002  2.000000e-004  -5.649262e-003
6.500000e-002  2.000000e-004  -5.612970e-003
6.550000e-002  2.000000e-004  -5.575544e-003
6.600000e-002  2.000000e-004  -5.537138e-003
6.650000e-002  2.000000e-004  -5.497890e-003
6.700000e-002  2.000000e-004  -5.457922e-003
6.750000e-002  2.000000e-004  -5.417346e-003
6.800000e-002  2.000000e-004  -5.376263e-003
6.850000e-002  2.000000e-004  -5.334763e-003
6.900000e-002  2.000000e-004  -5.292931e-003
6.950000e-002  2.000000e-004  -5.250842e-003
7.000000e-002  2.000000e-004  -5.208566e-003
7.050000e-002  2.000000e-004  -5.166167e-003
7.100000e-002  2.000000e-004  -5.123704e-003
7.150000e-002  2.000000e-004  -5.081231e-003
7.200000e-002  2.000000e-004  -5.038798e-003
7.250000e-002  2.000000e-004  -4.996451e-003
7.300000e-002  2.000000e-004  -4.954233e-003
7.350000e-002  2.000000e-004  -4.912182e-003
7.400000e-002  2.000000e-004  -4.870337e-003
7.450000e-002  2.000000e-004  -4.828729e-003
7.500000e-002  2.000000e-004  -4.787390e-003
7.550000e-002  2.000000e-004  -4.746349e-003
7.600000e-002  2.000000e-004  -4.705633e-003
7.650000e-002  2.000000e-004  -4.665265e-003
7.700000e-002  2.000000e-004  -4.625269e-003
7.750000e-002  2.000000e-004  -4.585665e-003
7.800000e-002  2.000000e-004  -4.546472e-003
7.850000e-002  2.000000e-004  -4.507708e-003
7.900000e-002  2.000000e-004  -4.469390e-003
7.950000e-002  2.000000e-004  -4.431532e-003
8.000000e-002  2.000000e-004  -4.394147e-003
8.050000e-002  2.000000e-004  -4.357248e-003
8.100000e-002  2.000000e-004  -4.320847e-003
8.150000e-002  2.000000e-004  -4.284953e-003
8.200000e-002  2.000000e-004  -4.249576e-003
8.250000e-002  2.000000e-004  -4.214725e-003
8.300000e-002  2.000000e-004  -4.180406e-003
8.350000e-002  2.000000e-004  -4.146627e-003
8.400000e-002  2.000000e-004  -4.113394e-003
8.450000e-002  2.000000e-004  -4.080711e-003
8.500000e-002  2.000000e-004  -4.048585e-003
8.550000e-002  2.000000e-004  -4.017019e-003
8.600000e-002  2.000000e-004  -3.986016e-003
8.650000e-002  2.000000e-004  -3.955581e-003
8.700000e-002  2.000000e-004  -3.925715e-003
8.750000e-002  2.000000e-004  -3.896421e-003
8.800000e-002  2.000000e-004  -3.867700e-003
8.850000e-002  2.000000e-004  -3.839555e-003
8.900000e-002  2.000000e-004  -3.811986e-003
8.950000e-002  2.000000e-004  -3.784994e-003
9.000000e-002  2.000000e-004  -3.758580e-003
9.050000e-002  2.000000e-004  -3.732745e-003
9.100000e-002  2.000000e-004  -3.707488e-003
9.150000e-002  2.000000e-004  -3.682809e-003
9.200000e-002  2.000000e-004  -3.658709e-003
9.250000e-002  2.000000e-004  -3.635186e-003
9.300000e-002  2.000000e-004  -3.612240e-003
9.350000e-002  2.000000e-004  -3.589871e-003
9.400000e-002  2.000000e-004  -3.568078e-003
9.450000e-002  2.000000e-004  -3.546860e-003
9.500000e-002  2.000000e-004  -3.526217e-003
9.550000e-002  2.000000e-004  -3.506146e-003
9.600000e-002  2.000000e-004  -3.486648e-003
9.650000e-002  2.000000e-004  -3.467722e-003
9.700000e-002  2.000000e-004  -3.449366e-003
9.750000e-002  2.000000e-004  -3.431579e-003
9.800000e-002  2.000000e-004  -3.414361e-003
9.850000e-002  2.000000e-004  -3.397710e-003
9.900000e-002  2.000000e-004  -3.381625e-003
9.950000e-002  2.000000e-004  -3.366107e-003
1.000000e-001  2.000000e-004  -3.351154e-003
1.005000e-001  2.000000e-004  -3.336764e-003
1.010000e-001  2.000000e-004  -3.322939e-003
1.015000e-001  2.000000e-004  -3.309676e-003
1.020000e-001  2.000000e-004  -3.296976e-003
1.025000e-001  2.000000e-004  -3.284838e-003
1.030000e-001  2.000000e-004  -3.273261e-003
1.035000e-001  2.000000e-004  -3.262247e-003
1.040000e-001  2.000000e-004  -3.251794e-003
1.045000e-001  2.000000e-004  -3.241903e-003
1.050000e-001  2.000000e-004  -3.232574e-003
1.055000e-001  2.000000e-004  -3.223808e-003
1.060000e-001  2.000000e-004  -3.215604e-003
1.065000e-001  2.000000e-004  -3.207964e-003
1.070000e-001  2.000000e-004  -3.200889e-003
1.075000e-001  2.000000e-004  -3.194379e-003
1.080000e-001  2.000000e-004  -3.188435e-003
1.085000e-001  2.000000e-004  -3.183060e-003
1.090000e-001  2.000000e-004  -3.178255e-003
1.095000e-001  2.000000e-004  -3.174020e-003
1.100000e-001  2.000000e-004  -3.170359e-003
1.105000e-001  2.000000e-004  -3.167274e-003
1.110000e-001  2.000000e-004  -3.164766e-003
1.115000e-001  2.000000e-004  -3.162839e-003
1.120000e-001  2.000000e-004  -3.161495e-003
1.125000e-001  2.000000e-004  -3.160737e-003
1.130000e-001  2.000000e-004  -3.160569e-003
1.135000e-001  2.000000e-004  -3.160993e-003
1.140000e-001  2.000000e-004  -3.162014e-003
1.145000e-001  2.000000e-004  -3.163636e-003
1.150000e-001  2.000000e-004  -3.165863e-003
1.155000e-001  2.000000e-004  -3.168699e-003
1.160000e-001  2.000000e-004  -3.172149e-003
1.165000e-001  2.000000e-004  -3.176218e-003
1.170000e-001  2.000000e-004  -3.180911e-003
1.175000e-001  2.000000e-004  -3.186234e-003
1.180000e-001  2.000000e-004  -3.192192e-003
1.185000e-001  2.000000e-004  -3.198793e-003
1.190000e-001  2.000000e-004  -3.206041e-003
1.195000e-001  2.000000e-004  -3.213944e-003
1.200000e-001  2.000000e-004  -3.222509e-003
1.205000e-001  2.000000e-004  -3.231742e-003
1.210000e-001  2.000000e-004  -3.241652e-003
1.215000e-001  2.000000e-004  -3.252246e-003
1.220000e-001  2.000000e-004  -3.263532e-003
1.225000e-001  2.000000e-004  -3.275519e-003
1.230000e-001  2.000000e-004  -3.288214e-003
1.235000e-001  2.000000e-004  -3.301628e-003
1.240000e-001  2.000000e-004  -3.315769e-003
1.245000e-001  2.000000e-004  -3.330646e-003
1.250000e-001  2.000000e-004  -3.346270e-003
1.255000e-001  2.000000e-004  -3.362650e-003
1.260000e-001  2.000000e-004  -3.379796e-003
1.265000e-001  2.000000e-004  -3.397719e-003
1.270000e-001  2.000000e-004  -3.416429e-003
1.275000e-001  2.000000e-004  -3.435936e-003
1.280000e-001  2.000000e-004  -3.456252e-003
1.285000e-001  2.000000e-004  -3.477387e-003
1.290000e-001  2.000000e-004  -3.499352e-003
1.295000e-001  2.000000e-004  -3.522157e-003
1.300000e-001  2.000000e-004  -3.545813e-003
1.305000e-001  2.000000e-004  -3.570332e-003
1.310000e-001  2.000000e-004  -3.595722e-003
1.315000e-001  2.000000e-004  -3.621995e-003
1.320000e-001  2.000000e-004  -3.649159e-003
1.325000e-001  2.000000e-004  -3.677224e-003
1.330000e-001  2.000000e-004  -3.706198e-003
1.335000e-001  2.000000e-004  -3.736088e-003
1.340000e-001  2.000000e-004  -3.766901e-003
1.345000e-001  2.000000e-004  -3.798643e-003
1.350000e-001  2.000000e-004  -3.831317e-003
1.355000e-001  2.000000e-004  -3.864927e-003
1.360000e-001  2.000000e-004  -3.899472e-003
1.365000e-001  2.000000e-004  -3.934952e-003
1.370000e-001  2.000000e-004  -3.971364e-003
1.375000e-001  2.000000e-004  -4.008700e-003
1.380000e-001  2.000000e-004  -4.046954e-003
1.385000e-001  2.000000e-004  -4.086113e-003
1.390000e-001  2.000000e-004  -4.126163e-003
1.395000e-001  2.000000e-004  -4.167085e-003
1.400000e-001  2.000000e-004  -4.208860e-003
1.405000e-001  2.000000e-004  -4.251464e-003
1.410000e-001  2.000000e-004  -4.294871e-003
1.415000e-001  2.000000e-004  -4.339058e-003
1.420000e-001  2.000000e-004  -4.384000e-003
1.425000e-001  2.000000e-004  -4.429680e-003
1.430000e-001  2.000000e-004  -4.476094e-003
1.435000e-001  2.000000e-004  -4.523259e-003
1.440000e-001  2.000000e-004  -4.571232e-003
1.445000e-001  2.000000e-004  -4.620128e-003
1.450000e-001  2.000000e-004  -4.670170e-003
1.455000e-001  2.000000e-004  -4.721731e-003
1.460000e-001  2.000000e-004  -4.775463e-003
1.465000e-001  2.000000e-004  -4.832384e-003
1.470000e-001  2.000000e-004  -4.894266e-003
1.475000e-001  2.000000e-004  -4.963759e-003
1.480000e-001  2.000000e-004  -5.045621e-003
1.485000e-001  2.000000e-004  -5.146623e-003
1.490000e-001  2.000000e-004  -5.280136e-003
1.495000e-001  2.000000e-004  -5.462478e-003
1.500000e-001  2.000000e-004  -5.739918e-003
1.505000e-001  2.000000e-004  -6.159944e-003
1.510000e-001  2.000000e-004  -5.235347e-003
1.515000e-001  2.000000e-004  -4.663395e-003
1.520000e-001  2.000000e-004  -4.222277e-003
1.525000e-001  2.000000e-004  -3.853244e-003
1.530000e-001  2.000000e-004  -3.532446e-003
1.535000e-001  2.000000e-004  -3.247297e-003
1.540000e-001  2.000000e-004  -2.990092e-003
1.545000e-001  2.000000e-004  -2.755666e-003
1.550000e-001  2.000000e-004  -2.540344e-003
1.555000e-001  2.000000e-004  -2.341384e-003
1.560000e-001  2.000000e-004  -2.156674e-003
1.565000e-001  2.000000e-004  -1.984539e-003
1.570000e-001  2.000000e-004  -1.823620e-003
1.575000e-001  2.000000e-004  -1.672792e-003
1.580000e-001  2.000000e-004  -1.531110e-003
1.585000e-001  2.000000e-004  -1.397768e-003
1.590000e-001  2.000000e-004  -1.272069e-003
1.595000e-001  2.000000e-004  -1.153405e-003
1.600000e-001  2.000000e-004  -1.041240e-003
1.605000e-001  2.000000e-004  -9.350991e-004
1.610000e-001  2.000000e-004  -8.345553e-004
1.615000e-001  2.000000e-004  -7.392247e-004
1.620000e-001  2.000000e-004  -6.487593e-004
1.625000e-001  2.000000e-004  -5.628418e-004
1.630000e-001  2.000000e-004  -4.811817e-004
1.635000e-001  2.000000e-004  -4.035118e-004
1.640000e-001  2.000000e-004  -3.295851e-004
1.645000e-001  2.000000e-004  -2.591730e-004
1.650000e-001  2.000000e-004  -1.920626e-004
1.655000e-001  2.000000e-004  -1.280555e-004
1.660000e-001  2.000000e-004  -6.696617e-005
1.665000e-001  2.000000e-004  -8.620424e-006
1.670000e-001  2.000000e-004  4.714537e-005
1.675000e-001  2.000000e-004  1.004854e-004
1.680000e-001  2.000000e-004  1.515452e-004
1.685000e-001  2.000000e-004  2.004625e-004
1.690000e-001  2.000000e-004  2.473676e-004
1.695000e-001  2.000000e-004  2.923843e-004
1.700000e-001  2.000000e-004  3.356304e-004
1.705000e-001  2.000000e-004  3.772177e-004
1.710000e-001  2.000000e-004  4.172531e-004
1.715000e-001  2.000000e-004  4.558382e-004
1.720000e-001  2.000000e-004  4.930705e-004
1.725000e-001  2.000000e-004  5.290430e-004
1.730000e-001  2.000000e-004  5.638448e-004
1.735000e-001  2.000000e-004  5.975614e-004
1.740000e-001  2.000000e-004  6.302746e-004
1.745000e-001  2.000000e-004  6.620634e-004
1.750000e-001  2.000000e-004  6.930033e-004
1.755000e-001  2.000000e-004  7.231673e-004
1.760000e-001  2.000000e-004  7.526254e-004
1.765000e-001  2.000000e-004  7.814455e-004
1.770000e-001  2.000000e-004  8.096929e-004
1.775000e-001  2.000000e-004  8.374307e-004
1.780000e-001  2.000000e-004  8.647200e-004
1.785000e-001  2.000000e-004  8.916200e-004
1.790000e-001  2.000000e-004  9.181881e-004
1.795000e-001  2.000000e-004  9.444800e-004
1.800000e-001  2.000000e-004  9.705500e-004
1.805000e-001  2.000000e-004  9.964508e-004
1.810000e-001  2.000000e-004  1.022234e-003
1.815000e-001  2.000000e-004  1.047949e-003
1.820000e-001  2.000000e-004  1.073647e-003
1.825000e-001  2.000000e-004  1.099374e-003
1.830000e-001  2.000000e-004  1.125179e-003
1.835000e-001  2.000000e-004  1.151109e-003
1.840000e-001  2.000000e-004  1.177208e-003
1.845000e-001  2.000000e-004  1.203524e-003
1.850000e-001  2.000000e-004  1.230102e-003
1.855000e-001  2.000000e-004  1.256986e-003
1.860000e-001  2.000000e-004  1.284222e-003
1.865000e-001  2.000000e-004  1.311855e-003
1.870000e-001  2.000000e-004  1.339931e-003
1.875000e-001  2.000000e-004  1.368496e-003
1.880000e-001  2.000000e-004  1.397597e-003
1.885000e-001  2.000000e-004  1.427280e-003
1.890000e-001  2.000000e-004  1.457595e-003
1.895000e-001  2.000000e-004  1.488592e-003
1.900000e-001  2.000000e-004  1.520321e-003
1.905000e-001  2.000000e-004  1.552837e-003
1.910000e-001  2.000000e-004  1.586194e-003
1.915000e-001  2.000000e-004  1.620452e-003
1.920000e-001  2.000000e-004  1.655668e-003
1.925000e-001  2.000000e-004  1.691915e-003
1.930000e-001  2.000000e-004  1.729245e-003
1.935000e-001  2.000000e-004  1.767755e-003
1.940000e-001  2.000000e-004  1.807481e-003
1.945000e-001  2.000000e-004  1.848576e-003
1.950000e-001  2.000000e-004  1.891007e-003
1.955000e-001  2.000000e-004  1.935073e-003
1.960000e-001  2.000000e-004  1.980528e-003
1.965000e-001  2.000000e-004  2.028087e-003
1.970000e-001  2.000000e-004  2.076789e-003
1.975000e-001  2.000000e-004  2.128732e-003
1.980000e-001  2.000000e-004  2.180353e-003
1.985000e-001  2.000000e-004  2.238998e-003
1.990000e-001  2.000000e-004  2.290164e-003
1.995000e-001  2.000000e-004  2.365714e-003
2.000000e-001  2.000000e-004  2.391482e-003
5.000000e-004  4.000000e-004  -1.415890e-003
1.000000e-003  4.000000e-004  -1.417892e-003
1.500000e-003  4.000000e-004  -1.418924e-003
2.000000e-003  4.000000e-004  -1.418992e-003
2.500000e-003  4.000000e-004  -1.418102e-003
3.000000e-003  4.000000e-004  -1.416258e-003
3.500000e-003  4.000000e-004  -1.413460e-003
4.000000e-003  4.000000e-004  -1.409709e-003
4.500000e-003  4.000000e-004  -1.405004e-003
5.000000e-003  4.000000e-004  -1.399341e-003
5.500000e-003  4.000000e-004  -1.392715e-003
6.000000e-003  4.000000e-004  -1.385119e-003
6.500000e-003  4.000000e-004  -1.376546e-003
7.000000e-003  4.000000e-004  -1.366986e-003
7.500000e-003  4.000000e-004  -1.356427e-003
8.000000e-003  4.000000e-004  -1.344857e-003
8.500000e-003  4.000000e-004  -1.332259e-003
9.000000e-003  4.000000e-004  -1.318619e-003
9.500000e-003  4.000000e-004  -1.303917e-003
1.000000e-002  4.000000e-004  -1.288133e-003
1.050000e-002  4.000000e-004  -1.271246e-003
1.100000e-002  4.000000e-004  -1.253232e-003
1.150000e-002  4.000000e-004  -1.234064e-003
1.200000e-002  4.000000e-004  -1.213716e-003
1.250000e-002  4.000000e-004  -1.192157e-003
1.300000e-002  4.000000e-004  -1.169355e-003
1.350000e-002  4.000000e-004  -1.145277e-003
1.400000e-002  4.000000e-004  -1.119886e-003
1.450000e-002  4.000000e-004  -1.093144e-003
1.500000e-002  4.000000e-004  -1.065009e-003
1.550000e-002  4.000000e-004  -1.035437e-003
1.600000e-002  4.000000e-004  -1.004383e-003
1.650000e-002  4.000000e-004  -9.717976e-004
1.700000e-002  4.000000e-004  -9.376282e-004
1.750000e-002  4.000000e-004  -9.018200e-004
1.800000e-002  4.000000e-004  -8.643147e-004
1.850000e-002  4.000000e-004  -8.250506e-004
1.900000e-002  4.000000e-004  -7.839624e-004
1.950000e-002  4.000000e-004  -7.409811e-004
2.000000e-002  4.000000e-004  -6.960335e-004
2.050000e-002  4.000000e-004  -6.490423e-004
2.100000e-002  4.000000e-004  -5.999255e-004
2.150000e-002  4.000000e-004  -5.485966e-004
2.200000e-002  4.000000e-004  -4.949634e-004
2.250000e-002  4.000000e-004  -4.389287e-004
2.300000e-002  4.000000e-004  -3.803889e-004
2.350000e-002  4.000000e-004  -3.192344e-004
2.400000e-002  4.000000e-004  -2.553486e-004
2.450000e-002  4.000000e-004  -1.886072e-004
2.500000e-002  4.000000e-004  -1.188783e-004
2.550000e-002  4.000000e-004  -4.602116e-005
2.600000e-002  4.000000e-004  3.011459e-005
2.650000e-002  4.000000e-004  1.096895e-004
2.700000e-002  4.000000e-004  1.928752e-004
2.750000e-002  4.000000e-004  2.798561e-004
2.800000e-002  4.000000e-004  3.708297e-004
2.850000e-002  4.000000e-004  4.660085e-004
2.900000e-002  4.000000e-004  5.656215e-004
2.950000e-002  4.000000e-004  6.699159e-004
3.000000e-002  4.000000e-004  7.791588e-004
3.050000e-002  4.000000e-004  8.936400e-004
3.100000e-002  4.000000e-004  1.013674e-003
3.150000e-002  4.000000e-004  1.139603e-003
3.200000e-002  4.000000e-004  1.271802e-003
3.250000e-002  4.000000e-004  1.410679e-003
3.300000e-002  4.000000e-004  1.556683e-003
3.350000e-002  4.000000e-004  1.710309e-003
3.400000e-002  4.000000e-004  1.872100e-003
3.450000e-002  4.000000e-004  2.042660e-003
3.500000e-002  4.000000e-004  2.222658e-003
3.550000e-002  4.000000e-004  2.412839e-003
3.600000e-002  4.000000e-004  2.614036e-003
3.650000e-002  4.000000e-004  2.827181e-003
3.700000e-002  4.000000e-004  3.053323e-003
3.750000e-002  4.000000e-004  3.293647e-003
3.800000e-002  4.000000e-004  3.549488e-003
3.850000e-002  4.000000e-004  3.822372e-003
3.900000e-002  4.000000e-004  4.114026e-003
3.950000e-002  4.000000e-004  4.426437e-003
4.000000e-002  4.000000e-004  4.761861e-003
4.050000e-002  4.000000e-004  5.122923e-003
4.100000e-002  4.000000e-004  5.512591e-003
4.150000e-002  4.000000e-004  5.934368e-003
4.200000e-002  4.000000e-004  6.392160e-003
4.250000e-002  4.000000e-004  6.890680e-003
4.300000e-002  4.000000e-004  7.434983e-003
4.350000e-002  4.000000e-004  8.031418e-003
4.400000e-002  4.000000e-004  8.686170e-003
4.450000e-002  4.000000e-004  9.407722e-003
4.500000e-002  4.000000e-004  1.020240e-002
4.550000e-002  4.000000e-004  1.108126e-002
4.600000e-002  4.000000e-004  1.204637e-002
4.650000e-002  4.000000e-004  1.311166e-002
4.700000e-002  4.000000e-004  1.425898e-002
4.750000e-002  4.000000e-004  1.550753e-002
4.800000e-002  4.000000e-004  1.676102e-002
4.850000e-002  4.000000e-004  1.807716e-002
4.900000e-002  4.000000e-004  1.903374e-002
4.950000e-002  4.000000e-004  2.012604e-002
5.000000e-002  4.000000e-004  1.876928e-002
5.050000e-002  4.000000e-004  8.950396e-003
5.100000e-002  4.000000e-004  3.527195e-003
5.150000e-002  4.000000e-004  3.232884e-004
5.200000e-002  4.000000e-004  -1.664143e-003
5.250000e-002  4.000000e-004  -2.944932e-003
5.300000e-002  4.000000e-004  -3.797355e-003
5.350000e-002  4.000000e-004  -4.380937e-003
5.400000e-002  4.000000e-004  -4.790453e-003
5.450000e-002  4.000000e-004  -5.083866e-003
5.500000e-002  4.000000e-004  -5.297570e-003
5.550000e-002  4.000000e-004  -5.454993e-003
5.600000e-002  4.000000e-004  -5.571601e-003
5.650000e-002  4.000000e-004  -5.657852e-003
5.700000e-002  4.000000e-004  -5.720996e-003
5.750000e-002  4.000000e-004  -5.766177e-003
5.800000e-002  4.000000e-004  -5.797131e-003
5.850000e-002  4.000000e-004  -5.816626e-003
5.900000e-002  4.000000e-004  -5.826759e-003
5.950000e-002  4.000000e-004  -5.829147e-003
6.000000e-002  4.000000e-004  -5.825057e-003
6.050000e-002  4.000000e-004  -5.815499e-003
6.100000e-002  4.000000e-004  -5.801290e-003
6.150000e-002  4.000000e-004  -5.783098e-003
6.200000e-002  4.000000e-004  -5.761479e-003
6.250000e-002  4.000000e-004  -5.736895e-003
6.300000e-002  4.000000e-004  -5.709741e-003
6.350000e-002  4.000000e-004  -5.680352e-003
6.400000e-002  4.000000e-004  -5.649016e-003
6.450000e-002  4.000000e-004  -5.615986e-003
6.500000e-002  4.000000e-004  -5.581479e-003
6.550000e-002  4.000000e-004  -5.545690e-003
6.600000e-002  4.000000e-004  -5.508788e-003
6.650000e-002  4.000000e-004  -5.470926e-003
6.700000e-002  4.000000e-004  -5.432240e-003
6.750000e-002  4.000000e-004  -5.392852e-003
6.800000e-002  4.000000e-004  -5.352871e-003
6.850000e-002  4.000000e-004  -5.312399e-003
6.900000e-002  4.000000e-004  -5.271524e-003
6.950000e-002  4.000000e-004  -5.230330e-003
7.000000e-002  4.000000e-004  -5.188893e-003
7.050000e-002  4.000000e-004  -5.147280e-003
7.100000e-002  4.000000e-004  -5.105556e-003
7.150000e-002  4.000000e-004  -5.063779e-003
7.200000e-002  4.000000e-004  -5.022001e-003
7.250000e-002  4.000000e-004  -4.980273e-003
7.300000e-002  4.000000e-004  -4.938640e-003
7.350000e-002  4.000000e-004  -4.897144e-003
7.400000e-002  4.000000e-004  -4.855823e-003
7.450000e-002  4.000000e-004  -4.814714e-003
7.500000e-002  4.000000e-004  -4.773848e-003
7.550000e-002  4.000000e-004  -4.733257e-003
7.600000e-002  4.000000e-004  -4.692969e-003
7.650000e-002  4.000000e-004  -4.653009e-003
7.700000e-002  4.000000e-004  -4.613402e-003
7.750000e-002  4.000000e-004  -4.574170e-003
7.800000e-002  4.000000e-004  -4.535332e-003
7.850000e-002  4.000000e-004  -4.496908e-003
7.900000e-002  4.000000e-004  -4.458914e-003
7.950000e-002  4.000000e-004  -4.421367e-003
8.000000e-002  4.000000e-004  -4.384280e-003
8.050000e-002  4.000000e-004  -4.347667e-003
8.100000e-002  4.000000e-004  -4.311540e-003
8.150000e-002  4.000000e-004  -4.275910e-003
8.200000e-002  4.000000e-004  -4.240786e-003
8.250000e-002  4.000000e-004  -4.206178e-003
8.300000e-002  4.000000e-004  -4.172093e-003
8.350000e-002  4.000000e-004  -4.138540e-003
8.400000e-002  4.000000e-004  -4.105524e-003
8.450000e-002  4.000000e-004  -4.073051e-003
8.500000e-002  4.000000e-004  -4.041126e-003
8.550000e-002  4.000000e-004  -4.009755e-003
8.600000e-002  4.000000e-004  -3.978940e-003
8.650000e-002  4.000000e-004  -3.948686e-003
8.700000e-002  4.000000e-004  -3.918995e-003
8.750000e-002  4.000000e-004  -3.889870e-003
8.800000e-002  4.000000e-004  -3.861314e-003
8.850000e-002  4.000000e-004  -3.833327e-003
8.900000e-002  4.000000e-004  -3.805912e-003
8.950000e-002  4.000000e-004  -3.779069e-003
9.000000e-002  4.000000e-004  -3.752799e-003
9.050000e-002  4.000000e-004  -3.727103e-003
9.100000e-002  4.000000e-004  -3.701982e-003
9.150000e-002  4.000000e-004  -3.677434e-003
9.200000e-002  4.000000e-004  -3.653461e-003
9.250000e-002  4.000000e-004  -3.630062e-003
9.300000e-002  4.000000e-004  -3.607237e-003
9.350000e-002  4.000000e-004  -3.584985e-003
9.400000e-002  4.000000e-004  -3.563306e-003
9.450000e-002  4.000000e-004  -3.542199e-003
9.500000e-002  4.000000e-004  -3.521663e-003
9.550000e-002  4.000000e-004  -3.501697e-003
9.600000e-002  4.000000e-004  -3.482302e-003
9.650000e-002  4.000000e-004  -3.463475e-003
9.700000e-002  4.000000e-004  -3.445216e-003
9.750000e-002  4.000000e-004  -3.427524e-003
9.800000e-002  4.000000e-004  -3.410398e-003
9.850000e-002  4.000000e-004  -3.393837e-003
9.900000e-002  4.000000e-004  -3.377841e-003
9.950000e-002  4.000000e-004  -3.362409e-003
1.000000e-001  4.000000e-004  -3.347540e-003
1.005000e-001  4.000000e-004  -3.333233e-003
1.010000e-001  4.000000e-004  -3.319488e-003
1.015000e-001  4.000000e-004  -3.306304e-003
1.020000e-001  4.000000e-004  -3.293682e-003
1.025000e-001  4.000000e-004  -3.281619e-003
1.030000e-001  4.000000e-004  -3.270118e-003
1.035000e-001  4.000000e-004  -3.259176e-003
1.040000e-001  4.000000e-004  -3.248796e-003
1.045000e-001  4.000000e-004  -3.238975e-003
1.050000e-001  4.000000e-004  -3.229716e-003
1.055000e-001  4.000000e-004  -3.221017e-003
1.060000e-001  4.000000e-004  -3.212881e-003
1.065000e-001  4.000000e-004  -3.205307e-003
1.070000e-001  4.000000e-004  -3.198297e-003
1.075000e-001  4.000000e-004  -3.191851e-003
1.080000e-001  4.000000e-004  -3.185971e-003
1.085000e-001  4.000000e-004  -3.180658e-003
1.090000e-001  4.000000e-004  -3.175915e-003
1.095000e-001  4.000000e-004  -3.171741e-003
1.100000e-001  4.000000e-004  -3.168141e-003
1.105000e-001  4.000000e-004  -3.165115e-003
1.110000e-001  4.000000e-004  -3.162667e-003
1.115000e-001  4.000000e-004  -3.160798e-003
1.120000e-001  4.000000e-004  -3.159512e-003
1.125000e-001  4.000000e-004  -3.158812e-003
1.130000e-001  4.000000e-004  -3.158701e-003
1.135000e-001  4.000000e-004  -3.159183e-003
1.140000e-001  4.000000e-004  -3.160261e-003
1.145000e-001  4.000000e-004  -3.161939e-003
1.150000e-001  4.000000e-004  -3.164222e-003
1.155000e-001  4.000000e-004  -3.167114e-003
1.160000e-001  4.000000e-004  -3.170620e-003
1.165000e-001  4.000000e-004  -3.174745e-003
1.170000e-001  4.000000e-004  -3.179494e-003
1.175000e-001  4.000000e-004  -3.184872e-003
1.180000e-001  4.000000e-004  -3.190887e-003
1.185000e-001  4.000000e-004  -3.197543e-003
1.190000e-001  4.000000e-004  -3.204848e-003
1.195000e-001  4.000000e-004  -3.212807e-003
1.200000e-001  4.000000e-004  -3.221428e-003
1.205000e-001  4.000000e-004  -3.230718e-003
1.210000e-001  4.000000e-004  -3.240685e-003
1.215000e-001  4.000000e-004  -3.251337e-003
1.220000e-001  4.000000e-004  -3.262681e-003
1.225000e-001  4.000000e-004  -3.274726e-003
1.230000e-001  4.000000e-004  -3.287481e-003
1.235000e-001  4.000000e-004  -3.300954e-003
1.240000e-001  4.000000e-004  -3.315156e-003
1.245000e-001  4.000000e-004  -3.330095e-003
1.250000e-001  4.000000e-004  -3.345781e-003
1.255000e-001  4.000000e-004  -3.362225e-003
1.260000e-001  4.000000e-004  -3.379435e-003
1.265000e-001  4.000000e-004  -3.397424e-003
1.270000e-001  4.000000e-004  -3.416201e-003