Variables = "x","y", "U", "V" 
Zone i=401 j=101
0.000000e+000  0.000000e+000  4.000000e-001  0.000000e+000
5.000000e-004  0.000000e+000  3.999969e-001  0.000000e+000
1.000000e-003  0.000000e+000  3.999923e-001  0.000000e+000
1.500000e-003  0.000000e+000  3.999858e-001  0.000000e+000
2.000000e-003  0.000000e+000  3.999774e-001  0.000000e+000
2.500000e-003  0.000000e+000  3.999670e-001  0.000000e+000
3.000000e-003  0.000000e+000  3.999547e-001  0.000000e+000
3.500000e-003  0.000000e+000  3.999404e-001  0.000000e+000
4.000000e-003  0.000000e+000  3.999241e-001  0.000000e+000
4.500000e-003  0.000000e+000  3.999059e-001  0.000000e+000
5.000000e-003  0.000000e+000  3.998856e-001  0.000000e+000
5.500000e-003  0.000000e+000  3.998633e-001  0.000000e+000
6.000000e-003  0.000000e+000  3.998389e-001  0.000000e+000
6.500000e-003  0.000000e+000  3.998124e-001  0.000000e+000
7.000000e-003  0.000000e+000  3.997838e-001  0.000000e+000
7.500000e-003  0.000000e+000  3.997530e-001  0.000000e+000
8.000000e-003  0.000000e+000  3.997199e-001  0.000000e+000
8.500000e-003  0.000000e+000  3.996846e-001  0.000000e+000
9.000000e-003  0.000000e+000  3.996470e-001  0.000000e+000
9.500000e-003  0.000000e+000  3.996070e-001  0.000000e+000
1.000000e-002  0.000000e+000  3.995645e-001  0.000000e+000
1.050000e-002  0.000000e+000  3.995196e-001  0.000000e+000
1.100000e-002  0.000000e+000  3.994720e-001  0.000000e+000
1.150000e-002  0.000000e+000  3.994219e-001  0.000000e+000
1.200000e-002  0.000000e+000  3.993690e-001  0.000000e+000
1.250000e-002  0.000000e+000  3.993133e-001  0.000000e+000
1.300000e-002  0.000000e+000  3.992547e-001  0.000000e+000
1.350000e-002  0.000000e+000  3.991931e-001  0.000000e+000
1.400000e-002  0.000000e+000  3.991284e-001  0.000000e+000
1.450000e-002  0.000000e+000  3.990606e-001  0.000000e+000
1.500000e-002  0.000000e+000  3.989894e-001  0.000000e+000
1.550000e-002  0.000000e+000  3.989148e-001  0.000000e+000
1.600000e-002  0.000000e+000  3.988366e-001  0.000000e+000
1.650000e-002  0.000000e+000  3.987548e-001  0.000000e+000
1.700000e-002  0.000000e+000  3.986691e-001  0.000000e+000
1.750000e-002  0.000000e+000  3.985795e-001  0.000000e+000
1.800000e-002  0.000000e+000  3.984857e-001  0.000000e+000
1.850000e-002  0.000000e+000  3.983876e-001  0.000000e+000
1.900000e-002  0.000000e+000  3.982851e-001  0.000000e+000
1.950000e-002  0.000000e+000  3.981778e-001  0.000000e+000
2.000000e-002  0.000000e+000  3.980657e-001  0.000000e+000
2.050000e-002  0.000000e+000  3.979485e-001  0.000000e+000
2.100000e-002  0.000000e+000  3.978259e-001  0.000000e+000
2.150000e-002  0.000000e+000  3.976978e-001  0.000000e+000
2.200000e-002  0.000000e+000  3.975639e-001  0.000000e+000
2.250000e-002  0.000000e+000  3.974239e-001  0.000000e+000
2.300000e-002  0.000000e+000  3.972775e-001  0.000000e+000
2.350000e-002  0.000000e+000  3.971243e-001  0.000000e+000
2.400000e-002  0.000000e+000  3.969642e-001  0.000000e+000
2.450000e-002  0.000000e+000  3.967966e-001  0.000000e+000
2.500000e-002  0.000000e+000  3.966212e-001  0.000000e+000
2.550000e-002  0.000000e+000  3.964375e-001  0.000000e+000
2.600000e-002  0.000000e+000  3.962452e-001  0.000000e+000
2.650000e-002  0.000000e+000  3.960437e-001  0.000000e+000
2.700000e-002  0.000000e+000  3.958325e-001  0.000000e+000
2.750000e-002  0.000000e+000  3.956111e-001  0.000000e+000
2.800000e-002  0.000000e+000  3.953786e-001  0.000000e+000
2.850000e-002  0.000000e+000  3.951346e-001  0.000000e+000
2.900000e-002  0.000000e+000  3.948783e-001  0.000000e+000
2.950000e-002  0.000000e+000  3.946087e-001  0.000000e+000
3.000000e-002  0.000000e+000  3.943250e-001  0.000000e+000
3.050000e-002  0.000000e+000  3.940262e-001  0.000000e+000
3.100000e-002  0.000000e+000  3.937112e-001  0.000000e+000
3.150000e-002  0.000000e+000  3.933786e-001  0.000000e+000
3.200000e-002  0.000000e+000  3.930272e-001  0.000000e+000
3.250000e-002  0.000000e+000  3.926554e-001  0.000000e+000
3.300000e-002  0.000000e+000  3.922614e-001  0.000000e+000
3.350000e-002  0.000000e+000  3.918431e-001  0.000000e+000
3.400000e-002  0.000000e+000  3.913984e-001  0.000000e+000
3.450000e-002  0.000000e+000  3.909247e-001  0.000000e+000
3.500000e-002  0.000000e+000  3.904190e-001  0.000000e+000
3.550000e-002  0.000000e+000  3.898779e-001  0.000000e+000
3.600000e-002  0.000000e+000  3.892974e-001  0.000000e+000
3.650000e-002  0.000000e+000  3.886729e-001  0.000000e+000
3.700000e-002  0.000000e+000  3.879990e-001  0.000000e+000
3.750000e-002  0.000000e+000  3.872693e-001  0.000000e+000
3.800000e-002  0.000000e+000  3.864763e-001  0.000000e+000
3.850000e-002  0.000000e+000  3.856111e-001  0.000000e+000
3.900000e-002  0.000000e+000  3.846627e-001  0.000000e+000
3.950000e-002  0.000000e+000  3.836181e-001  0.000000e+000
4.000000e-002  0.000000e+000  3.824616e-001  0.000000e+000
4.050000e-002  0.000000e+000  3.811736e-001  0.000000e+000
4.100000e-002  0.000000e+000  3.797303e-001  0.000000e+000
4.150000e-002  0.000000e+000  3.781022e-001  0.000000e+000
4.200000e-002  0.000000e+000  3.762521e-001  0.000000e+000
4.250000e-002  0.000000e+000  3.741336e-001  0.000000e+000
4.300000e-002  0.000000e+000  3.716877e-001  0.000000e+000
4.350000e-002  0.000000e+000  3.688394e-001  0.000000e+000
4.400000e-002  0.000000e+000  3.654920e-001  0.000000e+000
4.450000e-002  0.000000e+000  3.615207e-001  0.000000e+000
4.500000e-002  0.000000e+000  3.567623e-001  0.000000e+000
4.550000e-002  0.000000e+000  3.510043e-001  0.000000e+000
4.600000e-002  0.000000e+000  3.439636e-001  0.000000e+000
4.650000e-002  0.000000e+000  3.352700e-001  0.000000e+000
4.700000e-002  0.000000e+000  3.244235e-001  0.000000e+000
4.750000e-002  0.000000e+000  3.107768e-001  0.000000e+000
4.800000e-002  0.000000e+000  2.934464e-001  0.000000e+000
4.850000e-002  0.000000e+000  2.713425e-001  0.000000e+000
4.900000e-002  0.000000e+000  2.429638e-001  0.000000e+000
4.950000e-002  0.000000e+000  2.067478e-001  0.000000e+000
5.000000e-002  0.000000e+000  0.000000e+000  0.000000e+000
5.050000e-002  0.000000e+000  0.000000e+000  0.000000e+000
5.100000e-002  0.000000e+000  0.000000e+000  0.000000e+000
5.150000e-002  0.000000e+000  0.000000e+000  0.000000e+000
5.200000e-002  0.000000e+000  0.000000e+000  0.000000e+000
5.250000e-002  0.000000e+000  0.000000e+000  0.000000e+000
5.300000e-002  0.000000e+000  0.000000e+000  0.000000e+000
5.350000e-002  0.000000e+000  0.000000e+000  0.000000e+000
5.400000e-002  0.000000e+000  0.000000e+000  0.000000e+000
5.450000e-002  0.000000e+000  0.000000e+000  0.000000e+000
5.500000e-002  0.000000e+000  0.000000e+000  0.000000e+000
5.550000e-002  0.000000e+000  0.000000e+000  0.000000e+000
5.600000e-002  0.000000e+000  0.000000e+000  0.000000e+000
5.650000e-002  0.000000e+000  0.000000e+000  0.000000e+000
5.700000e-002  0.000000e+000  0.000000e+000  0.000000e+000
5.750000e-002  0.000000e+000  0.000000e+000  0.000000e+000
5.800000e-002  0.000000e+000  0.000000e+000  0.000000e+000
5.850000e-002  0.000000e+000  0.000000e+000  0.000000e+000
5.900000e-002  0.000000e+000  0.000000e+000  0.000000e+000
5.950000e-002  0.000000e+000  0.000000e+000  0.000000e+000
6.000000e-002  0.000000e+000  0.000000e+000  0.000000e+000
6.050000e-002  0.000000e+000  0.000000e+000  0.000000e+000
6.100000e-002  0.000000e+000  0.000000e+000  0.000000e+000
6.150000e-002  0.000000e+000  0.000000e+000  0.000000e+000
6.200000e-002  0.000000e+000  0.000000e+000  0.000000e+000
6.250000e-002  0.000000e+000  0.000000e+000  0.000000e+000
6.300000e-002  0.000000e+000  0.000000e+000  0.000000e+000
6.350000e-002  0.000000e+000  0.000000e+000  0.000000e+000
6.400000e-002  0.000000e+000  0.000000e+000  0.000000e+000
6.450000e-002  0.000000e+000  0.000000e+000  0.000000e+000
6.500000e-002  0.000000e+000  0.000000e+000  0.000000e+000
6.550000e-002  0.000000e+000  0.000000e+000  0.000000e+000
6.600000e-002  0.000000e+000  0.000000e+000  0.000000e+000
6.650000e-002  0.000000e+000  0.000000e+000  0.000000e+000
6.700000e-002  0.000000e+000  0.000000e+000  0.000000e+000
6.750000e-002  0.000000e+000  0.000000e+000  0.000000e+000
6.800000e-002  0.000000e+000  0.000000e+000  0.000000e+000
6.850000e-002  0.000000e+000  0.000000e+000  0.000000e+000
6.900000e-002  0.000000e+000  0.000000e+000  0.000000e+000
6.950000e-002  0.000000e+000  0.000000e+000  0.000000e+000
7.000000e-002  0.000000e+000  0.000000e+000  0.000000e+000
7.050000e-002  0.000000e+000  0.000000e+000  0.000000e+000
7.100000e-002  0.000000e+000  0.000000e+000  0.000000e+000
7.150000e-002  0.000000e+000  0.000000e+000  0.000000e+000
7.200000e-002  0.000000e+000  0.000000e+000  0.000000e+000
7.250000e-002  0.000000e+000  0.000000e+000  0.000000e+000
7.300000e-002  0.000000e+000  0.000000e+000  0.000000e+000
7.350000e-002  0.000000e+000  0.000000e+000  0.000000e+000
7.400000e-002  0.000000e+000  0.000000e+000  0.000000e+000
7.450000e-002  0.000000e+000  0.000000e+000  0.000000e+000
7.500000e-002  0.000000e+000  0.000000e+000  0.000000e+000
7.550000e-002  0.000000e+000  0.000000e+000  0.000000e+000
7.600000e-002  0.000000e+000  0.000000e+000  0.000000e+000
7.650000e-002  0.000000e+000  0.000000e+000  0.000000e+000
7.700000e-002  0.000000e+000  0.000000e+000  0.000000e+000
7.750000e-002  0.000000e+000  0.000000e+000  0.000000e+000
7.800000e-002  0.000000e+000  0.000000e+000  0.000000e+000
7.850000e-002  0.000000e+000  0.000000e+000  0.000000e+000
7.900000e-002  0.000000e+000  0.000000e+000  0.000000e+000
7.950000e-002  0.000000e+000  0.000000e+000  0.000000e+000
8.000000e-002  0.000000e+000  0.000000e+000  0.000000e+000
8.050000e-002  0.000000e+000  0.000000e+000  0.000000e+000
8.100000e-002  0.000000e+000  0.000000e+000  0.000000e+000
8.150000e-002  0.000000e+000  0.000000e+000  0.000000e+000
8.200000e-002  0.000000e+000  0.000000e+000  0.000000e+000
8.250000e-002  0.000000e+000  0.000000e+000  0.000000e+000
8.300000e-002  0.000000e+000  0.000000e+000  0.000000e+000
8.350000e-002  0.000000e+000  0.000000e+000  0.000000e+000
8.400000e-002  0.000000e+000  0.000000e+000  0.000000e+000
8.450000e-002  0.000000e+000  0.000000e+000  0.000000e+000
8.500000e-002  0.000000e+000  0.000000e+000  0.000000e+000
8.550000e-002  0.000000e+000  0.000000e+000  0.000000e+000
8.600000e-002  0.000000e+000  0.000000e+000  0.000000e+000
8.650000e-002  0.000000e+000  0.000000e+000  0.000000e+000
8.700000e-002  0.000000e+000  0.000000e+000  0.000000e+000
8.750000e-002  0.000000e+000  0.000000e+000  0.000000e+000
8.800000e-002  0.000000e+000  0.000000e+000  0.000000e+000
8.850000e-002  0.000000e+000  0.000000e+000  0.000000e+000
8.900000e-002  0.000000e+000  0.000000e+000  0.000000e+000
8.950000e-002  0.000000e+000  0.000000e+000  0.000000e+000
9.000000e-002  0.000000e+000  0.000000e+000  0.000000e+000
9.050000e-002  0.000000e+000  0.000000e+000  0.000000e+000
9.100000e-002  0.000000e+000  0.000000e+000  0.000000e+000
9.150000e-002  0.000000e+000  0.000000e+000  0.000000e+000
9.200000e-002  0.000000e+000  0.000000e+000  0.000000e+000
9.250000e-002  0.000000e+000  0.000000e+000  0.000000e+000
9.300000e-002  0.000000e+000  0.000000e+000  0.000000e+000
9.350000e-002  0.000000e+000  0.000000e+000  0.000000e+000
9.400000e-002  0.000000e+000  0.000000e+000  0.000000e+000
9.450000e-002  0.000000e+000  0.000000e+000  0.000000e+000
9.500000e-002  0.000000e+000  0.000000e+000  0.000000e+000
9.550000e-002  0.000000e+000  0.000000e+000  0.000000e+000
9.600000e-002  0.000000e+000  0.000000e+000  0.000000e+000
9.650000e-002  0.000000e+000  0.000000e+000  0.000000e+000
9.700000e-002  0.000000e+000  0.000000e+000  0.000000e+000
9.750000e-002  0.000000e+000  0.000000e+000  0.000000e+000
9.800000e-002  0.000000e+000  0.000000e+000  0.000000e+000
9.850000e-002  0.000000e+000  0.000000e+000  0.000000e+000
9.900000e-002  0.000000e+000  0.000000e+000  0.000000e+000
9.950000e-002  0.000000e+000  0.000000e+000  0.000000e+000
1.000000e-001  0.000000e+000  0.000000e+000  0.000000e+000
1.005000e-001  0.000000e+000  0.000000e+000  0.000000e+000
1.010000e-001  0.000000e+000  0.000000e+000  0.000000e+000
1.015000e-001  0.000000e+000  0.000000e+000  0.000000e+000
1.020000e-001  0.000000e+000  0.000000e+000  0.000000e+000
1.025000e-001  0.000000e+000  0.000000e+000  0.000000e+000
1.030000e-001  0.000000e+000  0.000000e+000  0.000000e+000
1.035000e-001  0.000000e+000  0.000000e+000  0.000000e+000
1.040000e-001  0.000000e+000  0.000000e+000  0.000000e+000
1.045000e-001  0.000000e+000  0.000000e+000  0.000000e+000
1.050000e-001  0.000000e+000  0.000000e+000  0.000000e+000
1.055000e-001  0.000000e+000  0.000000e+000  0.000000e+000
1.060000e-001  0.000000e+000  0.000000e+000  0.000000e+000
1.065000e-001  0.000000e+000  0.000000e+000  0.000000e+000
1.070000e-001  0.000000e+000  0.000000e+000  0.000000e+000
1.075000e-001  0.000000e+000  0.000000e+000  0.000000e+000
1.080000e-001  0.000000e+000  0.000000e+000  0.000000e+000
1.085000e-001  0.000000e+000  0.000000e+000  0.000000e+000
1.090000e-001  0.000000e+000  0.000000e+000  0.000000e+000
1.095000e-001  0.000000e+000  0.000000e+000  0.000000e+000
1.100000e-001  0.000000e+000  0.000000e+000  0.000000e+000
1.105000e-001  0.000000e+000  0.000000e+000  0.000000e+000
1.110000e-001  0.000000e+000  0.000000e+000  0.000000e+000
1.115000e-001  0.000000e+000  0.000000e+000  0.000000e+000
1.120000e-001  0.000000e+000  0.000000e+000  0.000000e+000
1.125000e-001  0.000000e+000  0.000000e+000  0.000000e+000
1.130000e-001  0.000000e+000  0.000000e+000  0.000000e+000
1.135000e-001  0.000000e+000  0.000000e+000  0.000000e+000
1.140000e-001  0.000000e+000  0.000000e+000  0.000000e+000
1.145000e-001  0.000000e+000  0.000000e+000  0.000000e+000
1.150000e-001  0.000000e+000  0.000000e+000  0.000000e+000
1.155000e-001  0.000000e+000  0.000000e+000  0.000000e+000
1.160000e-001  0.000000e+000  0.000000e+000  0.000000e+000
1.165000e-001  0.000000e+000  0.000000e+000  0.000000e+000
1.170000e-001  0.000000e+000  0.000000e+000  0.000000e+000
1.175000e-001  0.000000e+000  0.000000e+000  0.000000e+000
1.180000e-001  0.000000e+000  0.000000e+000  0.000000e+000
1.185000e-001  0.000000e+000  0.000000e+000  0.000000e+000
1.190000e-001  0.000000e+000  0.000000e+000  0.000000e+000
1.195000e-001  0.000000e+000  0.000000e+000  0.000000e+000
1.200000e-001  0.000000e+000  0.000000e+000  0.000000e+000
1.205000e-001  0.000000e+000  0.000000e+000  0.000000e+000
1.210000e-001  0.000000e+000  0.000000e+000  0.000000e+000
1.215000e-001  0.000000e+000  0.000000e+000  0.000000e+000
1.220000e-001  0.000000e+000  0.000000e+000  0.000000e+000
1.225000e-001  0.000000e+000  0.000000e+000  0.000000e+000
1.230000e-001  0.000000e+000  0.000000e+000  0.000000e+000
1.235000e-001  0.000000e+000  0.000000e+000  0.000000e+000
1.240000e-001  0.000000e+000  0.000000e+000  0.000000e+000
1.245000e-001  0.000000e+000  0.000000e+000  0.000000e+000
1.250000e-001  0.000000e+000  0.000000e+000  0.000000e+000
1.255000e-001  0.000000e+000  0.000000e+000  0.000000e+000
1.260000e-001  0.000000e+000  0.000000e+000  0.000000e+000
1.265000e-001  0.000000e+000  0.000000e+000  0.000000e+000
1.270000e-001  0.000000e+000  0.000000e+000  0.000000e+000
1.275000e-001  0.000000e+000  0.000000e+000  0.000000e+000
1.280000e-001  0.000000e+000  0.000000e+000  0.000000e+000
1.285000e-001  0.000000e+000  0.000000e+000  0.000000e+000
1.290000e-001  0.000000e+000  0.000000e+000  0.000000e+000
1.295000e-001  0.000000e+000  0.000000e+000  0.000000e+000
1.300000e-001  0.000000e+000  0.000000e+000  0.000000e+000
1.305000e-001  0.000000e+000  0.000000e+000  0.000000e+000
1.310000e-001  0.000000e+000  0.000000e+000  0.000000e+000
1.315000e-001  0.000000e+000  0.000000e+000  0.000000e+000
1.320000e-001  0.000000e+000  0.000000e+000  0.000000e+000
1.325000e-001  0.000000e+000  0.000000e+000  0.000000e+000
1.330000e-001  0.000000e+000  0.000000e+000  0.000000e+000
1.335000e-001  0.000000e+000  0.000000e+000  0.000000e+000
1.340000e-001  0.000000e+000  0.000000e+000  0.000000e+000
1.345000e-001  0.000000e+000  0.000000e+000  0.000000e+000
1.350000e-001  0.000000e+000  0.000000e+000  0.000000e+000
1.355000e-001  0.000000e+000  0.000000e+000  0.000000e+000
1.360000e-001  0.000000e+000  0.000000e+000  0.000000e+000
1.365000e-001  0.000000e+000  0.000000e+000  0.000000e+000
1.370000e-001  0.000000e+000  0.000000e+000  0.000000e+000
1.375000e-001  0.000000e+000  0.000000e+000  0.000000e+000
1.380000e-001  0.000000e+000  0.000000e+000  0.000000e+000
1.385000e-001  0.000000e+000  0.000000e+000  0.000000e+000
1.390000e-001  0.000000e+000  0.000000e+000  0.000000e+000
1.395000e-001  0.000000e+000  0.000000e+000  0.000000e+000
1.400000e-001  0.000000e+000  0.000000e+000  0.000000e+000
1.405000e-001  0.000000e+000  0.000000e+000  0.000000e+000
1.410000e-001  0.000000e+000  0.000000e+000  0.000000e+000
1.415000e-001  0.000000e+000  0.000000e+000  0.000000e+000
1.420000e-001  0.000000e+000  0.000000e+000  0.000000e+000
1.425000e-001  0.000000e+000  0.000000e+000  0.000000e+000
1.430000e-001  0.000000e+000  0.000000e+000  0.000000e+000
1.435000e-001  0.000000e+000  0.000000e+000  0.000000e+000
1.440000e-001  0.000000e+000  0.000000e+000  0.000000e+000
1.445000e-001  0.000000e+000  0.000000e+000  0.000000e+000
1.450000e-001  0.000000e+000  0.000000e+000  0.000000e+000
1.455000e-001  0.000000e+000  0.000000e+000  0.000000e+000
1.460000e-001  0.000000e+000  0.000000e+000  0.000000e+000
1.465000e-001  0.000000e+000  0.000000e+000  0.000000e+000
1.470000e-001  0.000000e+000  0.000000e+000  0.000000e+000
1.475000e-001  0.000000e+000  0.000000e+000  0.000000e+000
1.480000e-001  0.000000e+000  0.000000e+000  0.000000e+000
1.485000e-001  0.000000e+000  0.000000e+000  0.000000e+000
1.490000e-001  0.000000e+000  0.000000e+000  0.000000e+000
1.495000e-001  0.000000e+000  0.000000e+000  0.000000e+000
1.500000e-001  0.000000e+000  0.000000e+000  0.000000e+000
1.505000e-001  0.000000e+000  3.575979e-002  0.000000e+000
1.510000e-001  0.000000e+000  4.228090e-002  0.000000e+000
1.515000e-001  0.000000e+000  4.805671e-002  0.000000e+000
1.520000e-001  0.000000e+000  5.323003e-002  0.000000e+000
1.525000e-001  0.000000e+000  5.791757e-002  0.000000e+000
1.530000e-001  0.000000e+000  6.220944e-002  0.000000e+000
1.535000e-001  0.000000e+000  6.617477e-002  0.000000e+000
1.540000e-001  0.000000e+000  6.986697e-002  0.000000e+000
1.545000e-001  0.000000e+000  7.332778e-002  0.000000e+000
1.550000e-001  0.000000e+000  7.659016e-002  0.000000e+000
1.555000e-001  0.000000e+000  7.968051e-002  0.000000e+000
1.560000e-001  0.000000e+000  8.262021e-002  0.000000e+000
1.565000e-001  0.000000e+000  8.542677e-002  0.000000e+000
1.570000e-001  0.000000e+000  8.811468e-002  0.000000e+000
1.575000e-001  0.000000e+000  9.069605e-002  0.000000e+000
1.580000e-001  0.000000e+000  9.318111e-002  0.000000e+000
1.585000e-001  0.000000e+000  9.557855e-002  0.000000e+000
1.590000e-001  0.000000e+000  9.789584e-002  0.000000e+000
1.595000e-001  0.000000e+000  1.001394e-001  0.000000e+000
1.600000e-001  0.000000e+000  1.023149e-001  0.000000e+000
1.605000e-001  0.000000e+000  1.044272e-001  0.000000e+000
1.610000e-001  0.000000e+000  1.064806e-001  0.000000e+000
1.615000e-001  0.000000e+000  1.084789e-001  0.000000e+000
1.620000e-001  0.000000e+000  1.104256e-001  0.000000e+000
1.625000e-001  0.000000e+000  1.123236e-001  0.000000e+000
1.630000e-001  0.000000e+000  1.141758e-001  0.000000e+000
1.635000e-001  0.000000e+000  1.159845e-001  0.000000e+000
1.640000e-001  0.000000e+000  1.177519e-001  0.000000e+000
1.645000e-001  0.000000e+000  1.194801e-001  0.000000e+000
1.650000e-001  0.000000e+000  1.211709e-001  0.000000e+000
1.655000e-001  0.000000e+000  1.228260e-001  0.000000e+000
1.660000e-001  0.000000e+000  1.244469e-001  0.000000e+000
1.665000e-001  0.000000e+000  1.260350e-001  0.000000e+000
1.670000e-001  0.000000e+000  1.275915e-001  0.000000e+000
1.675000e-001  0.000000e+000  1.291177e-001  0.000000e+000
1.680000e-001  0.000000e+000  1.306147e-001  0.000000e+000
1.685000e-001  0.000000e+000  1.320836e-001  0.000000e+000
1.690000e-001  0.000000e+000  1.335251e-001  0.000000e+000
1.695000e-001  0.000000e+000  1.349403e-001  0.000000e+000
1.700000e-001  0.000000e+000  1.363299e-001  0.000000e+000
1.705000e-001  0.000000e+000  1.376947e-001  0.000000e+000
1.710000e-001  0.000000e+000  1.390355e-001  0.000000e+000
1.715000e-001  0.000000e+000  1.403528e-001  0.000000e+000
1.720000e-001  0.000000e+000  1.416474e-001  0.000000e+000
1.725000e-001  0.000000e+000  1.429197e-001  0.000000e+000
1.730000e-001  0.000000e+000  1.441705e-001  0.000000e+000
1.735000e-001  0.000000e+000  1.454001e-001  0.000000e+000
1.740000e-001  0.000000e+000  1.466091e-001  0.000000e+000
1.745000e-001  0.000000e+000  1.477979e-001  0.000000e+000
1.750000e-001  0.000000e+000  1.489669e-001  0.000000e+000
1.755000e-001  0.000000e+000  1.501166e-001  0.000000e+000
1.760000e-001  0.000000e+000  1.512474e-001  0.000000e+000
1.765000e-001  0.000000e+000  1.523596e-001  0.000000e+000
1.770000e-001  0.000000e+000  1.534535e-001  0.000000e+000
1.775000e-001  0.000000e+000  1.545295e-001  0.000000e+000
1.780000e-001  0.000000e+000  1.555878e-001  0.000000e+000
1.785000e-001  0.000000e+000  1.566288e-001  0.000000e+000
1.790000e-001  0.000000e+000  1.576526e-001  0.000000e+000
1.795000e-001  0.000000e+000  1.586596e-001  0.000000e+000
1.800000e-001  0.000000e+000  1.596499e-001  0.000000e+000
1.805000e-001  0.000000e+000  1.606238e-001  0.000000e+000
1.810000e-001  0.000000e+000  1.615815e-001  0.000000e+000
1.815000e-001  0.000000e+000  1.625230e-001  0.000000e+000
1.820000e-001  0.000000e+000  1.634487e-001  0.000000e+000
1.825000e-001  0.000000e+000  1.643585e-001  0.000000e+000
1.830000e-001  0.000000e+000  1.652526e-001  0.000000e+000
1.835000e-001  0.000000e+000  1.661311e-001  0.000000e+000
1.840000e-001  0.000000e+000  1.669940e-001  0.000000e+000
1.845000e-001  0.000000e+000  1.678414e-001  0.000000e+000
1.850000e-001  0.000000e+000  1.686734e-001  0.000000e+000
1.855000e-001  0.000000e+000  1.694899e-001  0.000000e+000
1.860000e-001  0.000000e+000  1.702908e-001  0.000000e+000
1.865000e-001  0.000000e+000  1.710761e-001  0.000000e+000
1.870000e-001  0.000000e+000  1.718458e-001  0.000000e+000
1.875000e-001  0.000000e+000  1.725996e-001  0.000000e+000
1.880000e-001  0.000000e+000  1.733374e-001  0.000000e+000
1.885000e-001  0.000000e+000  1.740589e-001  0.000000e+000
1.890000e-001  0.000000e+000  1.747640e-001  0.000000e+000
1.895000e-001  0.000000e+000  1.754522e-001  0.000000e+000
1.900000e-001  0.000000e+000  1.761231e-001  0.000000e+000
1.905000e-001  0.000000e+000  1.767763e-001  0.000000e+000
1.910000e-001  0.000000e+000  1.774111e-001  0.000000e+000
1.915000e-001  0.000000e+000  1.780271e-001  0.000000e+000
1.920000e-001  0.000000e+000  1.786234e-001  0.000000e+000
1.925000e-001  0.000000e+000  1.791991e-001  0.000000e+000
1.930000e-001  0.000000e+000  1.797532e-001  0.000000e+000
1.935000e-001  0.000000e+000  1.802846e-001  0.000000e+000
1.940000e-001  0.000000e+000  1.807920e-001  0.000000e+000
1.945000e-001  0.000000e+000  1.812737e-001  0.000000e+000
1.950000e-001  0.000000e+000  1.817280e-001  0.000000e+000
1.955000e-001  0.000000e+000  1.821529e-001  0.000000e+000
1.960000e-001  0.000000e+000  1.825460e-001  0.000000e+000
1.965000e-001  0.000000e+000  1.829048e-001  0.000000e+000
1.970000e-001  0.000000e+000  1.832259e-001  0.000000e+000
1.975000e-001  0.000000e+000  1.835063e-001  0.000000e+000
1.980000e-001  0.000000e+000  1.837408e-001  0.000000e+000
1.985000e-001  0.000000e+000  1.839272e-001  0.000000e+000
1.990000e-001  0.000000e+000  1.840550e-001  0.000000e+000
1.995000e-001  0.000000e+000  1.841289e-001  0.000000e+000
2.000000e-001  0.000000e+000  1.841289e-001  0.000000e+000
0.000000e+000  2.000000e-004  4.000000e-001  1.937826e-007
5.000000e-004  2.000000e-004  3.999969e-001  1.161745e-006
1.000000e-003  2.000000e-004  3.999923e-001  1.933085e-006
1.500000e-003  2.000000e-004  3.999858e-001  2.703975e-006
2.000000e-003  2.000000e-004  3.999774e-001  3.475772e-006
2.500000e-003  2.000000e-004  3.999670e-001  4.249823e-006
3.000000e-003  2.000000e-004  3.999547e-001  5.027473e-006
3.500000e-003  2.000000e-004  3.999404e-001  5.810065e-006
4.000000e-003  2.000000e-004  3.999242e-001  6.598947e-006
4.500000e-003  2.000000e-004  3.999059e-001  7.395473e-006
5.000000e-003  2.000000e-004  3.998856e-001  8.201007e-006
5.500000e-003  2.000000e-004  3.998633e-001  9.016928e-006
6.000000e-003  2.000000e-004  3.998389e-001  9.844633e-006
6.500000e-003  2.000000e-004  3.998124e-001  1.068554e-005
7.000000e-003  2.000000e-004  3.997838e-001  1.154109e-005
7.500000e-003  2.000000e-004  3.997530e-001  1.241276e-005
8.000000e-003  2.000000e-004  3.997200e-001  1.330204e-005
8.500000e-003  2.000000e-004  3.996847e-001  1.421050e-005
9.000000e-003  2.000000e-004  3.996470e-001  1.513970e-005
9.500000e-003  2.000000e-004  3.996070e-001  1.609129e-005
1.000000e-002  2.000000e-004  3.995646e-001  1.706694e-005
1.050000e-002  2.000000e-004  3.995196e-001  1.806839e-005
1.100000e-002  2.000000e-004  3.994721e-001  1.909745e-005
1.150000e-002  2.000000e-004  3.994220e-001  2.015598e-005
1.200000e-002  2.000000e-004  3.993691e-001  2.124593e-005
1.250000e-002  2.000000e-004  3.993134e-001  2.236933e-005
1.300000e-002  2.000000e-004  3.992548e-001  2.352830e-005
1.350000e-002  2.000000e-004  3.991932e-001  2.472504e-005
1.400000e-002  2.000000e-004  3.991286e-001  2.596187e-005
1.450000e-002  2.000000e-004  3.990607e-001  2.724124e-005
1.500000e-002  2.000000e-004  3.989895e-001  2.856570e-005
1.550000e-002  2.000000e-004  3.989150e-001  2.993796e-005
1.600000e-002  2.000000e-004  3.988368e-001  3.136087e-005
1.650000e-002  2.000000e-004  3.987550e-001  3.283744e-005
1.700000e-002  2.000000e-004  3.986693e-001  3.437089e-005
1.750000e-002  2.000000e-004  3.985797e-001  3.596460e-005
1.800000e-002  2.000000e-004  3.984860e-001  3.762221e-005
1.850000e-002  2.000000e-004  3.983879e-001  3.934758e-005
1.900000e-002  2.000000e-004  3.982853e-001  4.114483e-005
1.950000e-002  2.000000e-004  3.981781e-001  4.301839e-005
2.000000e-002  2.000000e-004  3.980660e-001  4.497300e-005
2.050000e-002  2.000000e-004  3.979488e-001  4.701379e-005
2.100000e-002  2.000000e-004  3.978263e-001  4.914626e-005
2.150000e-002  2.000000e-004  3.976982e-001  5.137638e-005
2.200000e-002  2.000000e-004  3.975643e-001  5.371059e-005
2.250000e-002  2.000000e-004  3.974243e-001  5.615591e-005
2.300000e-002  2.000000e-004  3.972780e-001  5.871997e-005
2.350000e-002  2.000000e-004  3.971249e-001  6.141112e-005
2.400000e-002  2.000000e-004  3.969647e-001  6.423849e-005
2.450000e-002  2.000000e-004  3.967972e-001  6.721207e-005
2.500000e-002  2.000000e-004  3.966218e-001  7.034291e-005
2.550000e-002  2.000000e-004  3.964382e-001  7.364318e-005
2.600000e-002  2.000000e-004  3.962460e-001  7.712633e-005
2.650000e-002  2.000000e-004  3.960445e-001  8.080733e-005
2.700000e-002  2.000000e-004  3.958334e-001  8.470284e-005
2.750000e-002  2.000000e-004  3.956120e-001  8.883148e-005
2.800000e-002  2.000000e-004  3.953797e-001  9.321411e-005
2.850000e-002  2.000000e-004  3.951357e-001  9.787422e-005
2.900000e-002  2.000000e-004  3.948795e-001  1.028383e-004
2.950000e-002  2.000000e-004  3.946100e-001  1.081364e-004
3.000000e-002  2.000000e-004  3.943264e-001  1.138026e-004
3.050000e-002  2.000000e-004  3.940278e-001  1.198760e-004
3.100000e-002  2.000000e-004  3.937129e-001  1.264011e-004
3.150000e-002  2.000000e-004  3.933806e-001  1.334294e-004
3.200000e-002  2.000000e-004  3.930294e-001  1.410202e-004
3.250000e-002  2.000000e-004  3.926578e-001  1.492424e-004
3.300000e-002  2.000000e-004  3.922641e-001  1.581764e-004
3.350000e-002  2.000000e-004  3.918462e-001  1.679162e-004
3.400000e-002  2.000000e-004  3.914019e-001  1.785724e-004
3.450000e-002  2.000000e-004  3.909287e-001  1.902758e-004
3.500000e-002  2.000000e-004  3.904236e-001  2.031818e-004
3.550000e-002  2.000000e-004  3.898832e-001  2.174759e-004
3.600000e-002  2.000000e-004  3.893035e-001  2.333808e-004
3.650000e-002  2.000000e-004  3.886801e-001  2.511653e-004
3.700000e-002  2.000000e-004  3.880075e-001  2.711556e-004
3.750000e-002  2.000000e-004  3.872795e-001  2.937497e-004
3.800000e-002  2.000000e-004  3.864886e-001  3.194364e-004
3.850000e-002  2.000000e-004  3.856260e-001  3.488190e-004
3.900000e-002  2.000000e-004  3.846810e-001  3.826472e-004
3.950000e-002  2.000000e-004  3.836408e-001  4.218587e-004
4.000000e-002  2.000000e-004  3.824899e-001  4.676323e-004
4.050000e-002  2.000000e-004  3.812093e-001  5.214639e-004
4.100000e-002  2.000000e-004  3.797759e-001  5.852574e-004
4.150000e-002  2.000000e-004  3.781609e-001  6.614657e-004
4.200000e-002  2.000000e-004  3.763287e-001  7.532527e-004
4.250000e-002  2.000000e-004  3.742345e-001  8.647633e-004
4.300000e-002  2.000000e-004  3.718222e-001  1.001417e-003
4.350000e-002  2.000000e-004  3.690208e-001  1.170450e-003
4.400000e-002  2.000000e-004  3.657397e-001  1.381452e-003
4.450000e-002  2.000000e-004  3.618633e-001  1.647517e-003
4.500000e-002  2.000000e-004  3.572425e-001  1.986190e-003
4.550000e-002  2.000000e-004  3.516866e-001  2.422057e-003
4.600000e-002  2.000000e-004  3.449465e-001  2.988220e-003
4.650000e-002  2.000000e-004  3.367060e-001  3.732444e-003
4.700000e-002  2.000000e-004  3.265498e-001  4.718101e-003
4.750000e-002  2.000000e-004  3.139644e-001  6.039903e-003
4.800000e-002  2.000000e-004  2.982768e-001  7.814175e-003
4.850000e-002  2.000000e-004  2.787207e-001  1.022936e-002